<?xml version="1.0"?>
<VTKFile type="ImageData" version="0.1" byte_order="LittleEndian">
  <ImageData WholeExtent="0 64 0 64 0 0"   Origin="0 0 0" Spacing="1 1 1">
    <Piece Extent="0 16 0 16 0 0">
      <CellData>
        <DataArray Name="scalar_data" type="Int32" format="ascii">
6 6 6 6 6 6 6 6 6 6 5 5 5 9 9 9 6 6 6 6 6 6 6 6 6 5 5 5 5 5 9 9 0 0 0 0 0 0 0 0 0 5 5 5 5 5 9 9 0 0 0 0 0 0 0 0 4 4 5 5 5 5 5 9 0 0 0 0 0 0 0 0 4 4 4 5 5 5 5 9 7 7 2 2 2 2 2 2 4 4 4 4 5 5 5 5 7 7 2 2 2 2 2 2 4 4 4 4 4 5 5 14 7 7 7 2 2 2 2 2 8 4 4 4 4 4 3 14 7 7 7 7 2 2 2 8 8 8 8 4 3 3 3 3 7 7 7 7 7 2 8 8 8 8 8 3 3 3 3 3 7 7 7 7 7 8 8 8 8 8 8 3 3 3 3 3 7 7 7 7 7 8 8 8 8 8 8 3 3 3 3 3 7 7 7 7 7 8 8 8 8 8 3 3 3 3 3 3 7 7 7 7 7 8 8 8 8 8 1 1 1 1 1 1 7 7 7 7 37 37 37 8 8 1 1 1 1 1 1 1 44 44 44 37 37 37 37 37 1 1 1 1 1 1 1 1 
        </DataArray>
      </CellData>
    </Piece>
    <Piece Extent="16 32 0 16 0 0">
      <CellData>
        <DataArray Name="scalar_data" type="Int32" format="ascii">
9 9 9 9 13 15 15 10 10 10 10 10 10 10 10 25 9 9 9 13 13 15 15 10 10 10 10 10 10 10 10 25 9 9 13 13 13 15 15 10 10 10 10 10 10 10 25 25 9 13 13 13 13 15 15 10 10 10 10 10 10 25 25 25 13 13 13 11 11 11 15 10 10 10 10 10 10 25 25 25 13 14 11 11 11 11 11 10 10 10 10 10 25 25 25 25 14 14 14 11 11 11 11 11 10 10 10 12 12 25 25 25 14 14 14 14 11 11 11 11 11 17 17 12 12 12 25 25 14 14 14 14 14 11 11 11 17 17 17 12 12 12 12 25 3 14 14 14 14 14 11 11 17 17 17 17 12 12 12 12 3 14 14 14 14 14 14 17 17 17 17 17 12 12 12 12 3 3 16 14 14 14 14 17 17 17 17 17 17 12 12 12 3 16 16 16 16 48 48 17 17 17 17 17 17 12 12 21 16 16 16 16 16 48 48 48 17 17 17 17 17 17 21 21 16 16 16 16 48 48 48 48 17 17 17 17 17 21 21 21 16 16 16 16 48 48 48 48 48 17 17 17 17 21 21 21 
        </DataArray>
      </CellData>
    </Piece>
    <Piece Extent="32 48 0 16 0 0">
      <CellData>
        <DataArray Name="scalar_data" type="Int32" format="ascii">
25 25 25 26 26 26 26 26 26 26 26 26 26 26 26 26 25 25 25 25 26 26 26 26 26 26 26 26 26 26 26 26 25 25 25 25 26 26 26 26 26 26 26 26 26 26 26 26 25 25 25 25 26 26 26 26 26 26 26 26 26 26 26 26 25 25 25 25 18 26 26 26 26 26 26 26 26 26 26 26 25 25 25 18 18 26 26 26 26 26 26 26 26 26 26 26 25 25 18 18 18 18 26 26 26 26 26 26 26 26 26 20 25 18 18 18 18 18 24 26 26 26 26 26 26 26 20 20 18 18 18 18 18 24 24 24 24 26 26 26 20 20 20 20 18 18 18 18 24 24 24 24 24 24 19 19 20 20 20 20 18 18 18 18 24 24 24 24 24 19 19 19 20 20 20 20 21 21 21 23 24 24 24 24 24 19 19 19 20 20 20 20 21 21 21 23 23 24 24 24 19 19 19 19 20 20 20 20 21 21 23 23 23 23 24 24 19 19 19 19 19 20 20 20 21 21 23 23 23 23 59 19 19 19 19 19 19 20 20 20 21 22 22 22 22 59 59 59 19 19 19 19 19 20 20 20 
        </DataArray>
      </CellData>
    </Piece>
    <Piece Extent="48 64 0 16 0 0">
      <CellData>
        <DataArray Name="scalar_data" type="Int32" format="ascii">
26 26 33 33 33 33 33 33 33 33 35 35 35 35 35 35 26 26 27 33 33 33 33 33 33 33 33 33 35 35 35 35 26 26 34 27 33 33 33 33 33 33 33 33 33 35 35 35 26 34 34 27 27 27 33 33 33 33 33 33 33 33 33 35 26 34 34 34 27 27 27 27 33 33 33 33 33 33 33 33 34 34 34 34 27 27 27 27 27 33 33 33 33 33 31 31 34 34 34 34 34 27 27 27 27 27 27 31 31 31 31 31 34 34 34 34 34 27 27 27 27 27 27 31 31 31 31 31 30 34 34 34 34 34 27 27 27 27 27 31 31 31 31 31 30 30 34 34 34 34 27 27 27 27 27 31 31 31 31 31 30 30 34 34 34 34 34 27 27 27 32 32 32 32 32 32 30 30 30 34 34 34 34 27 27 27 32 32 32 32 32 32 30 30 30 30 34 34 34 28 28 29 32 32 32 32 32 32 30 30 30 30 34 28 28 28 28 29 29 29 29 32 32 32 30 30 30 30 28 28 28 28 28 29 29 29 29 29 29 32 30 30 30 30 28 28 28 28 28 29 29 29 29 29 29 69 
        </DataArray>
      </CellData>
    </Piece>
    <Piece Extent="0 16 16 32 0 0">
      <CellData>
        <DataArray Name="scalar_data" type="Int32" format="ascii">
44 44 44 37 37 37 37 37 42 1 1 1 1 1 1 1 44 44 44 37 37 37 37 37 42 42 1 1 1 1 1 1 44 44 44 37 37 37 37 42 42 42 42 1 1 1 1 1 44 44 44 37 37 37 37 42 42 42 42 42 1 1 36 52 44 44 44 37 37 37 42 42 42 42 42 42 36 36 36 52 44 44 44 37 37 37 42 42 42 42 42 36 36 36 36 36 44 44 44 39 39 39 39 39 39 42 41 36 36 36 36 36 44 44 39 39 39 39 39 39 39 41 41 41 36 36 36 36 44 44 39 39 39 39 39 39 39 41 41 41 36 36 36 40 44 39 39 39 39 39 43 43 43 41 41 41 41 36 40 40 39 39 39 43 43 43 43 43 43 41 41 41 41 40 40 40 43 43 43 43 43 43 43 43 43 41 41 41 41 40 40 40 43 43 43 43 43 43 43 43 43 43 41 41 41 41 40 40 76 43 43 43 43 43 43 43 43 43 41 41 78 78 78 78 76 76 76 43 43 43 43 43 43 43 41 78 78 78 78 78 76 76 76 76 43 43 43 43 74 74 78 78 78 78 78 78 
        </DataArray>
      </CellData>
    </Piece>
    <Piece Extent="16 32 16 32 0 0">
      <CellData>
        <DataArray Name="scalar_data" type="Int32" format="ascii">
16 16 16 48 48 48 48 48 48 47 17 17 21 21 21 21 16 16 16 48 48 48 48 47 47 49 49 49 49 21 21 57 52 52 52 48 48 47 47 47 47 49 49 49 49 49 57 57 52 52 52 52 47 47 47 47 47 49 49 49 49 49 57 57 52 52 52 52 47 47 47 47 49 49 49 49 49 49 56 56 52 52 52 51 51 47 47 47 49 49 49 49 49 49 56 56 36 51 51 51 51 51 47 47 49 49 49 49 49 49 56 56 40 40 51 51 51 51 47 49 49 49 49 49 49 49 56 56 40 40 51 51 53 53 53 49 49 49 49 49 49 49 56 56 40 40 53 53 53 53 53 53 45 49 49 49 49 49 46 58 40 40 53 53 53 53 53 53 45 45 45 45 45 46 46 46 40 53 53 53 53 53 53 45 45 45 45 45 45 46 46 46 40 53 53 53 53 53 45 45 45 45 45 45 45 46 46 46 78 78 53 53 53 45 45 45 45 45 45 45 46 46 46 46 78 78 78 82 82 82 45 45 45 45 45 45 46 46 46 46 78 78 78 82 82 82 82 81 81 81 81 81 46 46 46 46 
        </DataArray>
      </CellData>
    </Piece>
    <Piece Extent="48 64 16 32 0 0">
      <CellData>
        <DataArray Name="scalar_data" type="Int32" format="ascii">
30 30 30 28 28 28 28 28 28 29 29 29 29 69 69 69 70 70 70 28 28 28 28 28 28 29 29 29 69 69 69 69 70 70 70 70 28 28 28 28 28 29 29 69 69 69 69 69 70 70 70 70 64 64 63 28 28 69 69 69 69 69 69 69 70 70 70 70 64 64 63 63 63 69 69 69 69 69 69 69 70 70 70 64 64 64 63 63 63 63 69 69 69 69 69 69 70 65 65 64 64 64 63 63 63 63 63 69 69 69 69 69 65 65 65 64 64 64 63 63 63 63 63 69 69 69 69 69 65 65 65 64 64 64 63 63 63 63 63 63 71 69 69 69 65 65 65 64 64 64 63 63 63 63 63 71 71 71 71 71 65 65 65 64 64 64 63 63 63 63 71 71 71 71 71 71 66 66 68 68 68 64 63 63 67 67 71 71 71 71 71 71 66 66 68 68 68 68 68 67 67 67 67 71 71 71 71 71 66 66 68 68 68 68 68 67 67 67 67 67 71 71 71 71 66 66 68 68 68 68 68 67 67 67 67 67 67 71 71 71 66 66 68 68 68 68 68 67 67 67 67 67 67 67 71 71 
        </DataArray>
      </CellData>
    </Piece>
    <Piece Extent="32 48 16 32 0 0">
      <CellData>
        <DataArray Name="scalar_data" type="Int32" format="ascii">
21 22 22 22 59 59 59 59 19 19 19 19 19 20 20 20 57 57 57 59 59 59 59 59 59 19 19 19 19 19 70 70 57 57 57 57 59 59 59 59 59 19 19 60 60 60 70 70 57 57 57 57 57 57 59 59 59 59 60 60 60 60 70 70 56 56 56 56 56 56 58 58 58 54 60 60 60 60 60 70 56 56 56 56 58 58 58 58 54 54 60 60 60 60 60 70 56 56 56 58 58 58 58 54 54 54 60 60 60 60 60 60 56 58 58 58 58 58 58 54 54 54 54 60 60 60 60 60 58 58 58 58 58 58 54 54 54 54 54 60 60 60 60 60 58 58 58 58 58 54 54 54 54 54 54 61 60 60 60 65 55 55 55 55 55 54 54 54 54 61 61 61 61 60 60 65 46 55 55 55 55 55 54 54 61 61 61 61 61 61 66 66 46 55 55 55 55 55 55 61 61 61 61 61 61 61 66 66 46 46 55 55 55 55 55 62 62 61 61 61 61 61 66 66 46 46 55 55 55 55 62 62 62 62 62 61 61 66 66 66 46 46 46 98 98 98 62 62 62 62 62 62 62 66 66 66 
        </DataArray>
      </CellData>
    </Piece>
    <Piece Extent="16 32 32 48 0 0">
      <CellData>
        <DataArray Name="scalar_data" type="Int32" format="ascii">
78 78 78 82 82 82 82 81 81 81 81 81 87 46 46 46 78 83 83 82 82 82 86 86 81 81 81 81 87 87 87 87 83 83 83 83 82 86 86 86 81 81 81 87 87 87 87 87 83 83 83 83 86 86 86 86 86 81 81 87 87 87 87 87 83 83 83 83 83 86 86 86 86 81 81 87 87 87 87 87 83 83 83 83 85 85 85 85 85 85 89 89 89 89 89 89 83 83 83 85 85 85 85 85 85 85 89 89 89 89 89 89 83 83 85 85 85 85 85 85 85 85 88 88 88 88 88 88 73 85 85 85 85 85 85 85 85 85 88 88 88 88 88 88 84 84 85 85 85 85 85 85 85 85 88 88 88 88 88 88 84 84 84 85 85 85 85 85 85 85 88 88 88 88 93 93 84 84 84 84 84 85 85 85 85 85 88 88 93 93 93 93 84 84 84 84 84 84 84 85 85 85 93 93 93 93 93 93 84 84 84 84 84 84 117 117 117 117 93 93 93 93 93 93 84 84 84 84 117 117 117 117 117 117 93 93 93 93 93 93 84 84 84 117 117 117 117 117 117 117 117 93 93 93 93 93 
        </DataArray>
      </CellData>
    </Piece>
    <Piece Extent="0 16 32 48 0 0">
      <CellData>
        <DataArray Name="scalar_data" type="Int32" format="ascii">
76 76 76 76 76 74 74 74 74 74 74 78 78 78 78 78 76 76 76 76 76 74 74 74 74 74 74 73 73 78 78 78 76 76 76 76 76 74 74 74 74 74 74 73 73 73 73 78 76 76 76 76 72 72 74 74 74 74 74 73 73 73 73 83 76 76 76 76 72 72 74 74 74 74 74 73 73 73 73 73 76 76 76 72 72 72 72 74 74 74 74 73 73 73 73 73 76 76 76 72 72 72 72 72 74 74 74 73 73 73 73 73 76 76 72 72 72 72 72 79 79 79 79 79 73 73 73 73 76 76 72 72 72 72 79 79 79 79 79 79 75 73 73 73 80 80 80 72 72 72 79 79 79 79 79 75 75 75 75 75 80 80 80 80 80 79 79 79 79 79 75 75 75 75 75 75 80 80 80 80 80 80 79 79 79 75 75 75 75 75 75 75 80 80 80 80 80 80 79 79 75 75 75 75 75 75 75 75 77 80 80 80 80 80 113 113 75 75 75 75 75 75 75 84 77 77 77 80 80 80 113 113 113 113 75 75 75 75 75 84 77 77 77 77 77 113 113 113 113 113 113 113 75 115 115 84 
        </DataArray>
      </CellData>
    </Piece>
    <Piece Extent="48 64 32 48 0 0">
      <CellData>
        <DataArray Name="scalar_data" type="Int32" format="ascii">
66 66 68 68 68 68 68 67 67 67 67 67 67 67 67 71 66 66 68 68 68 68 68 67 67 67 67 67 67 67 67 67 92 66 68 68 68 68 105 105 67 67 67 67 67 67 67 67 92 92 68 68 68 105 105 105 105 105 105 67 67 103 103 103 92 92 107 107 104 105 105 105 105 105 105 105 103 103 103 103 92 107 107 107 104 105 105 105 105 105 105 103 103 103 103 103 107 107 107 107 104 104 105 105 105 105 105 103 103 103 103 103 107 107 107 104 104 104 105 105 105 105 105 103 103 103 103 103 106 107 107 104 104 104 104 105 105 105 105 103 103 103 103 103 106 106 107 104 104 104 104 105 105 105 105 103 103 103 103 103 106 106 104 104 104 104 104 101 101 101 101 101 103 103 103 103 106 106 104 104 104 104 104 101 101 101 101 99 99 99 99 99 95 95 104 104 104 104 101 101 101 101 101 99 99 99 99 99 95 95 95 104 104 100 100 100 100 100 100 99 99 99 99 99 95 95 95 95 104 100 100 100 100 100 100 102 99 99 141 141 95 95 95 95 100 100 100 100 100 100 102 102 102 141 141 141 
        </DataArray>
      </CellData>
    </Piece>
    <Piece Extent="32 48 32 48 0 0">
      <CellData>
        <DataArray Name="scalar_data" type="Int32" format="ascii">
46 46 46 98 98 98 98 62 62 62 62 62 92 92 66 66 46 46 98 98 98 98 98 98 62 62 62 92 92 92 92 66 87 87 98 98 98 98 98 98 98 62 92 92 92 92 92 92 87 87 98 98 98 98 98 98 98 92 92 92 92 92 92 92 87 87 98 98 98 98 98 98 98 92 92 92 92 92 92 92 89 89 91 91 98 98 98 98 97 92 92 92 92 92 92 92 89 89 91 91 91 91 97 97 97 90 92 92 92 92 92 92 88 91 91 91 91 91 97 97 97 90 90 90 92 92 106 106 88 91 91 91 91 91 97 97 97 90 90 90 90 106 106 106 91 91 91 91 91 91 97 97 97 90 90 90 90 106 106 106 93 91 91 91 91 97 97 97 97 90 90 90 90 90 106 106 93 93 91 91 91 94 97 97 97 90 90 90 90 95 95 95 93 93 93 93 94 94 94 94 97 90 90 96 95 95 95 95 93 93 93 93 94 94 94 94 94 96 96 96 96 95 95 95 93 93 93 94 94 94 94 94 94 96 96 96 96 95 95 95 93 93 93 94 94 94 94 94 94 96 96 96 96 95 95 95 
        </DataArray>
      </CellData>
    </Piece>
    <Piece Extent="0 16 48 64 0 0">
      <CellData>
        <DataArray Name="scalar_data" type="Int32" format="ascii">
77 77 77 77 77 109 113 113 113 113 113 113 115 115 115 115 77 77 77 77 109 109 109 113 113 113 113 113 115 115 115 115 77 77 77 109 109 109 109 109 113 113 113 110 110 115 115 115 112 112 109 109 109 109 109 109 109 113 110 110 110 110 115 115 112 112 112 109 109 109 109 109 109 109 110 110 110 110 110 115 112 112 112 112 109 109 109 109 109 109 110 110 110 110 110 110 112 112 112 112 111 111 111 111 111 111 110 110 110 110 110 125 112 112 112 112 111 111 111 111 111 111 111 110 110 110 125 125 112 112 112 112 116 116 116 116 116 116 116 110 110 125 125 125 114 114 114 114 116 116 116 116 116 116 116 116 110 125 125 125 114 114 114 114 116 116 116 116 116 116 116 116 116 125 125 125 108 108 108 114 116 116 116 116 116 116 116 116 116 125 125 125 108 108 108 108 116 116 116 116 116 116 116 116 116 125 125 122 108 108 108 108 108 116 116 116 116 116 116 116 116 122 122 122 108 108 108 108 108 116 116 116 116 116 116 116 122 122 122 122 108 108 108 108 108 108 116 116 116 116 116 116 122 122 122 122 
        </DataArray>
      </CellData>
    </Piece>
    <Piece Extent="16 32 48 64 0 0">
      <CellData>
        <DataArray Name="scalar_data" type="Int32" format="ascii">
84 117 117 117 117 117 117 117 117 117 124 120 93 93 93 93 115 117 117 117 117 117 117 124 124 124 120 120 120 93 93 131 115 117 117 117 124 124 124 124 124 120 120 120 120 121 131 131 115 119 119 119 124 124 124 124 118 120 120 120 121 121 121 131 119 119 119 119 119 124 118 118 118 120 120 120 121 121 121 131 119 119 119 119 119 118 118 118 120 120 120 121 121 121 121 131 125 119 119 119 119 118 118 118 120 120 120 121 121 121 121 121 125 125 125 125 119 118 118 118 120 120 121 121 121 121 121 121 125 125 125 125 125 125 118 120 120 120 121 121 121 121 121 128 125 125 125 125 125 125 118 120 120 121 121 121 121 121 121 128 125 125 125 125 125 125 125 120 120 121 121 121 121 121 128 128 125 125 125 125 125 125 122 120 121 121 121 121 121 123 128 128 122 122 122 122 122 122 122 122 121 123 123 123 123 123 123 128 122 122 122 122 122 122 122 122 122 123 123 123 123 123 123 123 122 122 122 122 122 122 122 122 122 123 123 123 123 123 123 123 122 122 122 122 122 122 122 122 122 123 123 123 123 123 123 123 
        </DataArray>
      </CellData>
    </Piece>
    <Piece Extent="32 48 48 64 0 0">
      <CellData>
        <DataArray Name="scalar_data" type="Int32" format="ascii">
93 93 131 94 94 94 134 134 134 134 96 96 96 96 95 95 131 131 131 131 134 134 134 134 134 134 134 96 96 96 95 95 131 131 131 131 131 134 134 134 134 134 134 96 96 127 127 127 131 131 131 131 131 131 134 134 134 134 134 127 127 127 127 127 131 131 131 131 131 131 131 134 134 134 127 127 127 127 127 127 131 131 131 131 131 131 131 134 134 127 127 127 127 127 127 127 131 131 131 131 131 131 126 126 129 129 127 127 127 127 127 127 128 126 126 126 126 126 126 126 129 129 129 127 127 127 127 127 128 128 126 126 126 126 126 126 129 129 129 129 127 127 127 127 128 128 126 126 126 126 126 126 129 129 129 129 129 127 132 132 128 128 128 126 126 126 126 126 129 129 129 129 129 132 132 132 128 128 128 128 126 126 126 130 130 130 130 130 130 132 132 132 128 128 133 133 133 126 126 130 130 130 130 130 132 132 132 132 133 133 133 133 133 133 133 130 130 130 130 130 132 132 132 132 133 133 133 133 133 133 133 130 130 130 130 130 132 132 132 132 133 133 133 133 133 133 133 130 130 130 130 130 132 132 132 132 
        </DataArray>
      </CellData>
    </Piece>
    <Piece Extent="48 64 48 64 0 0">
      <CellData>
        <DataArray Name="scalar_data" type="Int32" format="ascii">
95 95 95 95 100 100 100 100 143 102 102 102 102 141 141 141 95 95 95 95 143 143 143 143 143 143 143 143 102 141 141 141 127 127 95 138 143 143 143 143 143 143 143 143 143 141 141 141 127 127 127 138 138 138 143 143 143 143 143 143 143 141 141 137 127 127 127 138 138 138 138 143 143 143 143 143 143 137 137 137 127 127 138 138 138 138 138 138 138 142 142 142 137 137 137 137 127 127 138 138 138 138 138 138 138 142 142 142 142 137 137 137 127 127 138 138 138 138 138 138 138 142 142 142 142 135 135 135 127 127 138 138 138 138 138 138 138 142 142 142 142 135 135 135 132 132 138 138 138 138 138 138 140 140 140 140 140 135 135 135 132 132 132 138 138 138 138 138 140 140 140 140 140 135 135 135 132 132 132 138 138 138 138 138 140 140 140 140 140 135 135 135 132 132 132 132 138 138 138 139 139 139 139 139 139 136 135 135 132 132 132 132 138 138 139 139 139 139 139 139 136 136 136 136 132 132 132 132 139 139 139 139 139 139 139 136 136 136 136 136 132 132 132 132 139 139 139 139 139 139 136 136 136 136 136 136 
        </DataArray>
      </CellData>
    </Piece>
  </ImageData>
</VTKFile>
